# vtk DataFile Version 2.0
Simplicial Mesh Example
ASCII
DATASET UNSTRUCTURED_GRID
POINTS 405 double
0.000000e+00 0.000000e+00 0.000000e+00
1.000000e+00 0.000000e+00 0.000000e+00
0.000000e+00 1.000000e+00 0.000000e+00
1.000000e+00 1.000000e+00 0.000000e+00
0.000000e+00 0.000000e+00 1.000000e+00
1.000000e+00 0.000000e+00 1.000000e+00
0.000000e+00 1.000000e+00 1.000000e+00
1.000000e+00 1.000000e+00 1.000000e+00
5.000000e-01 1.000000e+00 0.000000e+00
0.000000e+00 1.000000e+00 5.000000e-01
1.000000e+00 1.000000e+00 5.000000e-01
5.000000e-01 1.000000e+00 1.000000e+00
0.000000e+00 0.000000e+00 5.000000e-01
5.000000e-01 0.000000e+00 0.000000e+00
5.000000e-01 0.000000e+00 1.000000e+00
1.000000e+00 0.000000e+00 5.000000e-01
0.000000e+00 5.000000e-01 0.000000e+00
1.000000e+00 5.000000e-01 0.000000e+00
0.000000e+00 5.000000e-01 1.000000e+00
1.000000e+00 5.000000e-01 1.000000e+00
5.000000e-01 0.000000e+00 5.000000e-01
5.000000e-01 5.000000e-01 1.000000e+00
1.000000e+00 5.000000e-01 5.000000e-01
0.000000e+00 5.000000e-01 5.000000e-01
5.000000e-01 5.000000e-01 0.000000e+00
5.000000e-01 1.000000e+00 5.000000e-01
1.000000e+00 7.500000e-01 0.000000e+00
7.500000e-01 1.000000e+00 0.000000e+00
1.000000e+00 7.500000e-01 1.000000e+00
1.000000e+00 1.000000e+00 7.500000e-01
0.000000e+00 7.500000e-01 1.000000e+00
0.000000e+00 1.000000e+00 7.500000e-01
0.000000e+00 7.500000e-01 0.000000e+00
2.500000e-01 1.000000e+00 0.000000e+00
5.000000e-01 5.000000e-01 5.000000e-01
1.000000e+00 1.000000e+00 2.500000e-01
7.500000e-01 1.000000e+00 1.000000e+00
2.500000e-01 1.000000e+00 1.000000e+00
0.000000e+00 1.000000e+00 2.500000e-01
7.083333e-01 7.083333e-01 1.000000e+00
7.083333e-01 1.000000e+00 7.083333e-01
1.000000e+00 7.083333e-01 7.083333e-01
1.000000e+00 7.083333e-01 2.916667e-01
7.083333e-01 1.000000e+00 2.916667e-01
7.083333e-01 7.083333e-01 0.000000e+00
0.000000e+00 7.500000e-01 6.250000e-01
2.500000e-01 1.000000e+00 6.250000e-01
3.750000e-01 7.500000e-01 0.000000e+00
3.750000e-01 1.000000e+00 2.500000e-01
8.385417e-01 8.385417e-01 0.000000e+00
1.000000e+00 1.000000e+00 1.250000e-01
1.000000e+00 8.750000e-01 0.000000e+00
1.000000e+00 8.385417e-01 8.385417e-01
8.750000e-01 1.000000e+00 1.000000e+00
1.000000e+00 8.750000e-01 1.000000e+00
1.875000e-01 1.000000e+00 8.125000e-01
0.000000e+00 8.750000e-01 1.000000e+00
0.000000e+00 1.000000e+00 8.750000e-01
2.916667e-01 7.083333e-01 1.000000e+00
0.000000e+00 8.125000e-01 8.125000e-01
1.875000e-01 1.000000e+00 1.875000e-01
0.000000e+00 8.750000e-01 0.000000e+00
1.250000e-01 1.000000e+00 0.000000e+00
0.000000e+00 7.083333e-01 2.916667e-01
1.875000e-01 8.125000e-01 0.000000e+00
7.500000e-01 4.583333e-01 1.000000e+00
8.690476e-01 6.250000e-01 1.000000e+00
1.000000e+00 6.250000e-01 8.690476e-01
1.000000e+00 7.797619e-01 5.000000e-01
8.690476e-01 1.000000e+00 6.250000e-01
1.000000e+00 8.602431e-01 6.866319e-01
6.837121e-01 6.837121e-01 6.837121e-01
1.000000e+00 0.000000e+00 2.500000e-01
1.000000e+00 2.500000e-01 0.000000e+00
1.000000e+00 4.583333e-01 2.500000e-01
7.500000e-01 4.583333e-01 0.000000e+00
8.541667e-01 6.041667e-01 0.000000e+00
1.000000e+00 6.250000e-01 1.309524e-01
5.526961e-01 1.000000e+00 1.825980e-01
6.250000e-01 8.690476e-01 0.000000e+00
6.837121e-01 6.837121e-01 3.162879e-01
0.000000e+00 1.000000e+00 6.250000e-01
0.000000e+00 8.750000e-01 6.875000e-01
1.250000e-01 1.000000e+00 6.875000e-01
3.750000e-01 1.000000e+00 0.000000e+00
3.125000e-01 8.750000e-01 0.000000e+00
3.125000e-01 1.000000e+00 1.250000e-01
3.125000e-01 7.500000e-01 4.375000e-01
8.422619e-01 1.000000e+00 1.875000e-01
1.000000e+00 8.422619e-01 1.875000e-01
8.750000e-01 1.000000e+00 0.000000e+00
8.125000e-01 1.000000e+00 8.422619e-01
8.125000e-01 8.422619e-01 1.000000e+00
1.000000e+00 1.000000e+00 8.750000e-01
1.250000e-01 1.000000e+00 1.000000e+00
0.000000e+00 0.000000e+00 7.500000e-01
0.000000e+00 2.500000e-01 1.000000e+00
2.500000e-01 4.583333e-01 1.000000e+00
8.333333e-02 1.000000e+00 8.125000e-01
0.000000e+00 9.166667e-01 8.125000e-01
1.458333e-01 6.041667e-01 1.000000e+00
0.000000e+00 5.833333e-01 7.847222e-01
1.685606e-01 8.314394e-01 1.000000e+00
2.537879e-01 7.462121e-01 7.304293e-01
0.000000e+00 1.000000e+00 1.250000e-01
2.500000e-01 0.000000e+00 0.000000e+00
0.000000e+00 2.500000e-01 0.000000e+00
2.500000e-01 5.312500e-01 0.000000e+00
1.875000e-01 1.000000e+00 8.333333e-02
1.875000e-01 9.166667e-01 0.000000e+00
0.000000e+00 8.314394e-01 1.685606e-01
1.000000e+00 6.250000e-01 1.000000e+00
8.805961e-01 7.439957e-01 1.000000e+00
1.000000e+00 7.366071e-01 8.876488e-01
1.000000e+00 0.000000e+00 7.500000e-01
1.000000e+00 2.500000e-01 1.000000e+00
1.000000e+00 5.039925e-01 7.043409e-01
1.000000e+00 4.758552e-01 8.518174e-01
8.720238e-01 4.970238e-01 1.000000e+00
6.875000e-01 0.000000e+00 7.500000e-01
1.000000e+00 2.427401e-01 6.250000e-01
7.500000e-01 0.000000e+00 1.000000e+00
8.204674e-01 1.000000e+00 4.430123e-01
1.000000e+00 8.898810e-01 5.631823e-01
5.000000e-01 7.797619e-01 1.000000e+00
4.633621e-01 1.000000e+00 7.535920e-01
6.250000e-01 1.000000e+00 8.690476e-01
1.000000e+00 6.398810e-01 5.684524e-01
8.298035e-01 7.924262e-01 7.544488e-01
7.470238e-01 5.863095e-01 8.464265e-01
8.750000e-01 4.791667e-01 0.000000e+00
1.000000e+00 3.750000e-01 0.000000e+00
1.000000e+00 4.970238e-01 1.279762e-01
1.000000e+00 6.250000e-01 0.000000e+00
8.268229e-01 7.200521e-01 0.000000e+00
6.250000e-01 1.000000e+00 0.000000e+00
4.786086e-01 8.544457e-01 0.000000e+00
6.990327e-01 1.000000e+00 1.415285e-01
7.500000e-01 5.255682e-01 5.000000e-01
5.102479e-01 1.000000e+00 3.386260e-01
6.398810e-01 5.684524e-01 0.000000e+00
6.137716e-01 4.117965e-01 2.500000e-01
8.464265e-01 5.863095e-01 2.529762e-01
0.000000e+00 1.000000e+00 6.875000e-01
1.328125e-01 1.000000e+00 5.468750e-01
0.000000e+00 8.174020e-01 4.473039e-01
0.000000e+00 8.906250e-01 5.625000e-01
3.125000e-01 1.000000e+00 0.000000e+00
3.125000e-01 1.000000e+00 4.375000e-01
4.604325e-01 7.645811e-01 2.354189e-01
5.463813e-01 7.620890e-01 5.000000e-01
8.319319e-01 8.319319e-01 3.123988e-01
9.335130e-01 1.000000e+00 1.875000e-01
1.000000e+00 9.335130e-01 1.875000e-01
9.292675e-01 8.125000e-01 0.000000e+00
1.000000e+00 8.125000e-01 8.569539e-02
9.071543e-01 1.000000e+00 9.284568e-02
1.000000e+00 9.085578e-01 9.433866e-02
9.075247e-01 9.078103e-01 0.000000e+00
8.125000e-01 1.000000e+00 9.335130e-01
8.125000e-01 9.335130e-01 1.000000e+00
1.000000e+00 9.077577e-01 9.077577e-01
9.071543e-01 9.071543e-01 1.000000e+00
9.375000e-01 1.000000e+00 1.000000e+00
1.000000e+00 1.000000e+00 9.375000e-01
9.011417e-01 1.000000e+00 8.878875e-01
9.711512e-02 9.028849e-01 1.000000e+00
0.000000e+00 9.092262e-01 9.092262e-01
6.250000e-02 1.000000e+00 1.000000e+00
0.000000e+00 1.000000e+00 9.375000e-01
7.291667e-02 1.000000e+00 7.395833e-01
0.000000e+00 9.375000e-01 7.187500e-01
1.423611e-01 8.576389e-01 7.569444e-01
0.000000e+00 6.886125e-01 8.753708e-01
0.000000e+00 3.007479e-01 7.128739e-01
0.000000e+00 4.177365e-01 8.443881e-01
4.527507e-01 5.728175e-01 7.500000e-01
1.761364e-01 7.159091e-01 8.771904e-01
3.216540e-01 8.614268e-01 1.000000e+00
3.429030e-01 1.000000e+00 8.648657e-01
0.000000e+00 9.028849e-01 9.711512e-02
9.077381e-02 9.092262e-01 0.000000e+00
0.000000e+00 1.000000e+00 6.250000e-02
6.250000e-02 1.000000e+00 0.000000e+00
0.000000e+00 6.250000e-01 1.309524e-01
0.000000e+00 6.250000e-01 0.000000e+00
0.000000e+00 3.726534e-01 2.511733e-01
2.604167e-01 1.000000e+00 7.291667e-02
2.604167e-01 9.270833e-01 0.000000e+00
2.430556e-01 8.576389e-01 1.423611e-01
9.345238e-01 5.625000e-01 1.000000e+00
1.000000e+00 5.625000e-01 9.345238e-01
1.000000e+00 8.186658e-01 9.276335e-01
9.289171e-01 8.198710e-01 1.000000e+00
1.000000e+00 6.714410e-01 9.345238e-01
9.345238e-01 6.787038e-01 1.000000e+00
6.717977e-01 1.000000e+00 5.365357e-01
1.000000e+00 1.000000e+00 6.250000e-01
8.946198e-01 1.000000e+00 5.206958e-01
4.992816e-01 1.000000e+00 8.741790e-01
5.890805e-01 8.460989e-01 7.484606e-01
6.450216e-01 8.671537e-01 1.000000e+00
8.507218e-01 6.068473e-01 6.713072e-01
1.000000e+00 7.924262e-01 7.544488e-01
8.994356e-01 1.000000e+00 7.822824e-01
1.000000e+00 7.723432e-01 6.138680e-01
8.653118e-01 8.488656e-01 6.186179e-01
7.888754e-01 7.531630e-01 8.879758e-01
7.470238e-01 5.863095e-01 1.000000e+00
8.275690e-01 4.254601e-01 8.409644e-01
5.684524e-01 6.398810e-01 1.000000e+00
1.000000e+00 5.625000e-01 6.547619e-02
9.345238e-01 5.625000e-01 0.000000e+00
1.000000e+00 7.146671e-01 9.140843e-02
9.216302e-01 6.875000e-01 0.000000e+00
5.461060e-01 9.188750e-01 0.000000e+00
5.625000e-01 1.000000e+00 8.086590e-02
4.355197e-01 1.000000e+00 1.416152e-01
4.010167e-01 9.088667e-01 0.000000e+00
7.366071e-01 8.876488e-01 0.000000e+00
6.875000e-01 1.000000e+00 0.000000e+00
6.447084e-01 1.000000e+00 7.981793e-02
6.422378e-01 8.395372e-01 2.204039e-01
6.231304e-01 5.310650e-01 3.786271e-01
5.868056e-01 2.500000e-01 0.000000e+00
6.178571e-01 4.363095e-01 0.000000e+00
1.000000e+00 5.863095e-01 2.529762e-01
8.122394e-01 3.906331e-01 1.877606e-01
8.600495e-01 6.667234e-01 1.318325e-01
1.000000e+00 2.951663e-01 4.056667e-01
6.815538e-01 5.650311e-01 1.776539e-01
1.000000e+00 6.567450e-01 4.257657e-01
2.027785e-01 8.271602e-01 5.688792e-01
1.451823e-01 1.000000e+00 3.649089e-01
0.000000e+00 1.000000e+00 3.750000e-01
9.138813e-02 1.000000e+00 4.526555e-01
0.000000e+00 9.099420e-01 4.693516e-01
8.329814e-02 1.000000e+00 6.146537e-01
4.244370e-01 8.750000e-01 4.141890e-01
5.331470e-01 6.967324e-01 0.000000e+00
3.854167e-01 5.989583e-01 0.000000e+00
4.748092e-01 1.000000e+00 2.451967e-01
3.257865e-01 5.161244e-01 2.746379e-01
4.587400e-01 6.424502e-01 3.810809e-01
7.358838e-01 7.193229e-01 5.000000e-01
8.460849e-01 8.460849e-01 1.566585e-01
1.000000e+00 1.000000e+00 6.250000e-02
9.375000e-01 1.000000e+00 0.000000e+00
1.000000e+00 9.375000e-01 0.000000e+00
9.260916e-01 8.619107e-01 7.466018e-02
1.000000e+00 9.375000e-01 1.000000e+00
9.379140e-01 1.000000e+00 9.379140e-01
1.904791e-01 9.248034e-01 1.000000e+00
[...]
POINT_DATA 405
SCALARS Vec_0x84000000_0 double 1
LOOKUP_TABLE default
0.000000e+00
0.000000e+00
0.000000e+00
0.000000e+00
0.000000e+00
0.000000e+00
0.000000e+00
0.000000e+00
0.000000e+00
0.000000e+00
0.000000e+00
0.000000e+00
0.000000e+00
0.000000e+00
0.000000e+00
0.000000e+00
0.000000e+00
0.000000e+00
0.000000e+00
0.000000e+00
0.000000e+00
0.000000e+00
0.000000e+00
0.000000e+00
0.000000e+00
0.000000e+00
0.000000e+00
0.000000e+00
0.000000e+00
0.000000e+00
0.000000e+00
0.000000e+00
0.000000e+00
0.000000e+00
2.101005e-03
0.000000e+00
0.000000e+00
0.000000e+00
0.000000e+00
0.000000e+00
0.000000e+00
0.000000e+00
0.000000e+00
0.000000e+00
0.000000e+00
0.000000e+00
0.000000e+00
0.000000e+00
0.000000e+00
0.000000e+00
0.000000e+00
0.000000e+00
0.000000e+00
0.000000e+00
0.000000e+00
0.000000e+00
0.000000e+00
0.000000e+00
0.000000e+00
0.000000e+00
0.000000e+00
0.000000e+00
0.000000e+00
0.000000e+00
0.000000e+00
0.000000e+00
0.000000e+00
0.000000e+00
0.000000e+00
0.000000e+00
0.000000e+00
1.557697e-03
0.000000e+00
0.000000e+00
0.000000e+00
0.000000e+00
0.000000e+00
0.000000e+00
0.000000e+00
0.000000e+00
1.881369e-03
0.000000e+00
0.000000e+00
0.000000e+00
0.000000e+00
0.000000e+00
0.000000e+00
1.243379e-03
0.000000e+00
0.000000e+00
0.000000e+00
0.000000e+00
0.000000e+00
0.000000e+00
0.000000e+00
0.000000e+00
0.000000e+00
0.000000e+00
0.000000e+00
0.000000e+00
0.000000e+00
0.000000e+00
0.000000e+00
1.193429e-03
0.000000e+00
0.000000e+00
0.000000e+00
0.000000e+00
0.000000e+00
0.000000e+00
0.000000e+00
0.000000e+00
0.000000e+00
0.000000e+00
0.000000e+00
0.000000e+00
0.000000e+00
0.000000e+00
0.000000e+00
0.000000e+00
0.000000e+00
0.000000e+00
0.000000e+00
0.000000e+00
0.000000e+00
0.000000e+00
0.000000e+00
0.000000e+00
-3.085719e-03
9.609146e-04
0.000000e+00
0.000000e+00
0.000000e+00
0.000000e+00
0.000000e+00
0.000000e+00
0.000000e+00
0.000000e+00
3.166808e-03
0.000000e+00
0.000000e+00
9.977122e-04
5.529793e-05
0.000000e+00
0.000000e+00
0.000000e+00
0.000000e+00
0.000000e+00
0.000000e+00
1.841593e-03
1.726283e-03
-1.281200e-02
0.000000e+00
0.000000e+00
0.000000e+00
0.000000e+00
0.000000e+00
0.000000e+00
0.000000e+00
0.000000e+00
0.000000e+00
0.000000e+00
0.000000e+00
0.000000e+00
0.000000e+00
0.000000e+00
0.000000e+00
0.000000e+00
0.000000e+00
0.000000e+00
0.000000e+00
0.000000e+00
1.417439e-03
0.000000e+00
0.000000e+00
0.000000e+00
3.790212e-03
1.931153e-03
0.000000e+00
0.000000e+00
0.000000e+00
0.000000e+00
0.000000e+00
0.000000e+00
0.000000e+00
0.000000e+00
0.000000e+00
0.000000e+00
0.000000e+00
-4.506974e-04
0.000000e+00
0.000000e+00
0.000000e+00
0.000000e+00
0.000000e+00
0.000000e+00
0.000000e+00
0.000000e+00
0.000000e+00
0.000000e+00
-3.441611e-03
0.000000e+00
-3.924961e-03
0.000000e+00
0.000000e+00
0.000000e+00
-5.707183e-03
3.309850e-03
0.000000e+00
1.171198e-02
0.000000e+00
0.000000e+00
0.000000e+00
0.000000e+00
0.000000e+00
0.000000e+00
0.000000e+00
0.000000e+00
0.000000e+00
0.000000e+00
0.000000e+00
0.000000e+00
-8.896939e-04
1.090180e-03
0.000000e+00
0.000000e+00
0.000000e+00
2.923971e-03
-1.799775e-03
0.000000e+00
1.109406e-03
0.000000e+00
6.848688e-04
0.000000e+00
0.000000e+00
0.000000e+00
0.000000e+00
0.000000e+00
-4.776932e-03
0.000000e+00
0.000000e+00
0.000000e+00
1.472042e-03
1.227088e-03
1.886123e-03
3.096435e-04
0.000000e+00
0.000000e+00
0.000000e+00
-2.825760e-03
0.000000e+00
0.000000e+00
0.000000e+00
0.000000e+00
0.000000e+00
0.000000e+00
0.000000e+00
0.000000e+00
0.000000e+00
2.051932e-04
0.000000e+00
0.000000e+00
8.822489e-03
2.779240e-03
1.008169e-02
0.000000e+00
0.000000e+00
0.000000e+00
0.000000e+00
-7.212408e-03
0.000000e+00
0.000000e+00
0.000000e+00
0.000000e+00
0.000000e+00
0.000000e+00
0.000000e+00
0.000000e+00
4.136823e-03
-4.714980e-03
-5.616022e-03
0.000000e+00
0.000000e+00
0.000000e+00
0.000000e+00
0.000000e+00
-1.211620e-02
2.968513e-03
0.000000e+00
-7.688397e-03
1.759059e-03
0.000000e+00
0.000000e+00
0.000000e+00
-1.313878e-02
5.270904e-04
0.000000e+00
0.000000e+00
-6.168890e-03
0.000000e+00
0.000000e+00
0.000000e+00
0.000000e+00
-2.919716e-03
0.000000e+00
0.000000e+00
2.900389e-03
0.000000e+00
1.279339e-03
1.731868e-02
1.448514e-03
0.000000e+00
0.000000e+00
-3.033671e-03
1.395542e-03
1.979088e-03
1.223525e-03
0.000000e+00
0.000000e+00
-7.357228e-03
0.000000e+00
2.550635e-03
0.000000e+00
0.000000e+00
-3.109821e-03
0.000000e+00
0.000000e+00
-8.092691e-04
1.980204e-03
3.337300e-03
0.000000e+00
0.000000e+00
3.287080e-03
2.055079e-03
1.581802e-03
-1.433557e-03
0.000000e+00
0.000000e+00
0.000000e+00
0.000000e+00
1.333040e-03
-4.075281e-04
0.000000e+00
1.714505e-03
0.000000e+00
0.000000e+00
2.895350e-04
0.000000e+00
0.000000e+00
0.000000e+00
0.000000e+00
0.000000e+00
0.000000e+00
0.000000e+00
-1.777209e-03
-9.730989e-03
1.238636e-02
0.000000e+00
-1.156305e-03
7.599061e-04
-5.805632e-04
-3.748386e-03
-3.614674e-03
1.190775e-03
1.540580e-03
-3.563074e-03
1.529038e-03
3.090383e-03
8.739785e-04
0.000000e+00
1.973825e-03
-1.150043e-03
0.000000e+00
2.110391e-03
2.453900e-03
9.161573e-04
1.001227e-03
1.156651e-03
-3.866285e-03
0.000000e+00
1.703804e-03
-6.744618e-04
8.662163e-04
1.551688e-03
0.000000e+00
0.000000e+00
5.381583e-03
0.000000e+00
0.000000e+00
1.288386e-03
-2.449763e-03
-6.862505e-03
3.831547e-03
0.000000e+00
5.518834e-03
1.096799e-03
5.925580e-04
1.206256e-03
-8.450154e-03
9.989559e-04
8.783023e-03
5.873264e-03
0.000000e+00
1.058313e-02
0.000000e+00
