# vtk DataFile Version 2.0
Simplicial Mesh Example
ASCII
DATASET UNSTRUCTURED_GRID
POINTS 27 double
0.000000e+00 0.000000e+00 0.000000e+00
1.000000e+00 0.000000e+00 0.000000e+00
0.000000e+00 1.000000e+00 0.000000e+00
1.000000e+00 1.000000e+00 0.000000e+00
0.000000e+00 0.000000e+00 1.000000e+00
1.000000e+00 0.000000e+00 1.000000e+00
0.000000e+00 1.000000e+00 1.000000e+00
1.000000e+00 1.000000e+00 1.000000e+00
5.000000e-01 1.000000e+00 0.000000e+00
0.000000e+00 1.000000e+00 5.000000e-01
1.000000e+00 1.000000e+00 5.000000e-01
5.000000e-01 1.000000e+00 1.000000e+00
0.000000e+00 0.000000e+00 5.000000e-01
5.000000e-01 0.000000e+00 0.000000e+00
5.000000e-01 0.000000e+00 1.000000e+00
1.000000e+00 0.000000e+00 5.000000e-01
0.000000e+00 5.000000e-01 0.000000e+00
1.000000e+00 5.000000e-01 0.000000e+00
0.000000e+00 5.000000e-01 1.000000e+00
1.000000e+00 5.000000e-01 1.000000e+00
5.000000e-01 0.000000e+00 5.000000e-01
5.000000e-01 5.000000e-01 1.000000e+00
1.000000e+00 5.000000e-01 5.000000e-01
0.000000e+00 5.000000e-01 5.000000e-01
5.000000e-01 5.000000e-01 0.000000e+00
5.000000e-01 1.000000e+00 5.000000e-01
5.000000e-01 5.000000e-01 5.000000e-01
CELLS 48 240
4  7 25 10 26
4  7 21 11 26
4  5 22 15 26
4  17 24 1 26
4  17 22 3 26
4  1 20 15 26
4  15 22 1 26
4  1 22 17 26
4  7 22 19 26
4  10 22 7 26
4  19 21 7 26
4  19 22 5 26
4  11 25 7 26
4  5 21 19 26
4  15 20 5 26
4  3 24 17 26
4  5 20 14 26
4  14 21 5 26
4  14 20 4 26
4  4 21 14 26
4  18 21 4 26
4  4 23 18 26
4  18 23 6 26
4  6 21 18 26
4  4 20 12 26
4  12 23 4 26
4  3 22 10 26
4  10 25 3 26
4  11 21 6 26
4  6 25 11 26
4  13 20 1 26
4  1 24 13 26
4  8 24 3 26
4  3 25 8 26
4  0 23 12 26
4  12 20 0 26
4  16 23 0 26
4  0 24 16 26
4  16 24 2 26
4  2 23 16 26
4  6 23 9 26
4  9 25 6 26
4  0 20 13 26
4  13 24 0 26
4  2 24 8 26
4  8 25 2 26
4  9 23 2 26
4  2 25 9 26
CELL_TYPES 48
10
10
10
10
10
10
10
10
10
10
10
10
10
10
10
10
10
10
10
10
10
10
10
10
10
10
10
10
10
10
10
10
10
10
10
10
10
10
10
10
10
10
10
10
10
10
10
10
POINT_DATA 27
SCALARS Vec_0x84000000_1 double 1
LOOKUP_TABLE default
0.000000e+00
0.000000e+00
0.000000e+00
0.000000e+00
0.000000e+00
0.000000e+00
0.000000e+00
0.000000e+00
0.000000e+00
0.000000e+00
0.000000e+00
0.000000e+00
0.000000e+00
0.000000e+00
0.000000e+00
0.000000e+00
0.000000e+00
0.000000e+00
0.000000e+00
0.000000e+00
0.000000e+00
0.000000e+00
0.000000e+00
0.000000e+00
0.000000e+00
0.000000e+00
7.500000e-01
